25
id_2_cb.log	Energy: -634188.3019771
C         -2.85839       -0.90704        0.27972
H         -2.82870       -0.55314        1.31898
H         -2.28255       -1.83120        0.20627
C         -2.29623        0.15504       -0.65864
C         -0.89547        0.64817       -0.30808
C          0.16272       -0.46391       -0.19934
C          1.56644        0.11445       -0.38149
C          2.68309       -0.91867       -0.27012
H          2.58766       -1.61314       -1.11292
H          2.54769       -1.49453        0.65207
S          4.33557       -0.10930       -0.26546
O          1.74175        1.14415        0.59590
H          2.71844        1.27140        0.63418
O          0.02734       -1.15227        1.03745
H         -0.17166       -0.48291        1.71618
O         -0.99721        1.35323        0.92970
H         -0.13341        1.77719        1.08799
O         -3.19526        1.26432       -0.69839
H         -3.08820        1.75244        0.13749
O         -4.19579       -1.22491       -0.09337
H         -4.67432       -0.38232       -0.17721
H         -2.27554       -0.24721       -1.67683
H         -0.59062        1.34381       -1.10080
H         -0.00309       -1.20089       -0.99466
H          1.60562        0.56477       -1.38593
